
  ___ ___ ___ _ _ _  
 |   |   |_  | | | | 
 | | | | | . | | | | 
 |__ |  _|___|_____|  0.10.0.11364
 |___|_|             

User:  finarfin@Nargothrond
Date:  Tue Jun 14 14:27:21 2016
Arch:  x86_64
Pid:   8577
Dir:   /home/finarfin/Program_Files/gpaw-0.10.0.11364/gpaw
ase:   /home/finarfin/Program_Files/python-ase-3.8.1.3440/ase (version 3.8.1.3440)
numpy: /usr/lib/python2.7/dist-packages/numpy (version 1.8.2)
scipy: /usr/lib/python2.7/dist-packages/scipy (version 0.13.3)
units: Angstrom and eV
cores: 3

Memory estimate
---------------
Process memory now: 43.89 MiB
Calculator  74.02 MiB
    Density  29.31 MiB
        Arrays  19.26 MiB
        Localized functions  5.67 MiB
        Mixer  4.38 MiB
    Hamiltonian  27.42 MiB
        Arrays  12.60 MiB
        XC  0.00 MiB
        Poisson  14.37 MiB
        vbar  0.45 MiB
    Wavefunctions  17.29 MiB
        C [qnM]  0.28 MiB
        S, T [2 x qmm]  1.89 MiB
        P [aqMi]  0.04 MiB
        TCI  0.00 MiB
        BasisFunctions  15.08 MiB
        Eigensolver  0.00 MiB

Positions:
  0 C    11.5010    6.7300    5.0000
  1 C    11.5010    8.2700    5.0000
  2 C     7.5000    4.4199    5.0000
  3 C    10.1673    4.4199    5.0000
  4 C     4.8327    5.9600    5.0000
  5 C     4.8327    4.4199    5.0000
  6 C     4.8327    9.0400    5.0000
  7 C     3.4990    8.2700    5.0000
  8 C     3.4990    6.7300    5.0000
  9 C     4.8327   10.5801    5.0000
 10 C     7.5000   10.5801    5.0000
 11 C    10.1673   10.5801    5.0000
 12 C     7.5000    9.0400    5.0000
 13 C     6.1663    8.2700    5.0000
 14 C     6.1663    6.7300    5.0000
 15 C     7.5000    5.9600    5.0000
 16 C     8.8337    6.7300    5.0000
 17 C     8.8337    8.2700    5.0000
 18 C    10.1673    9.0400    5.0000
 19 C    10.1673    5.9600    5.0000
 20 N     6.1663    3.6499    5.0000
 21 N     8.8337    3.6499    5.0000
 22 N     8.8337   11.3501    5.0000
 23 N     6.1663   11.3501    5.0000
 24 H    11.2010   11.1501    5.0000
 25 H    12.5347    8.8400    5.0000
 26 H    12.5347    6.1600    5.0000
 27 H    11.2010    3.8499    5.0000
 28 H     3.7990    3.8499    5.0000
 29 H     2.4653    6.1600    5.0000
 30 H     2.4653    8.8400    5.0000
 31 H     3.7990   11.1501    5.0000

          .------------------------------------.  
         /|                                    |  
        / |                                    |  
       /  |                                    |  
      /   |                                    |  
     /    |                                    |  
    /     |                                    |  
   /      |                                    |  
  /       |      H     N      N    H           |  
 *        |        C      C     C              |  
 |        | H  C  C  C   C  C   C C  H         |  
 |        |H  C C   C  C   C  C  C  H          |  
 |        .-----C-----C------C-----------------.  
 |       /   H    N      N     H              /   
 |      /                                    /    
 |     /                                    /     
 |    /                                    /      
 |   /                                    /       
 |  /                                    /        
 | /                                    /         
 |/                                    /          
 *------------------------------------*           

Unit Cell:
           Periodic     X           Y           Z      Points  Spacing
  --------------------------------------------------------------------
  1. axis:    no    15.000000    0.000000    0.000000    76     0.1974
  2. axis:    no     0.000000   15.000000    0.000000    76     0.1974
  3. axis:    no     0.000000    0.000000   10.000000    52     0.1923

C-setup:
  name   : Carbon
  id     : d60576a1f549371a163e72552ca58787
  Z      : 6
  valence: 4
  core   : 2
  charge : 0.0
  file   : /home/finarfin/Program_Files/gpaw-setups-0.9.11271/C.LDA.gz
  cutoffs: 0.64(comp), 1.14(filt), 1.14(core), lmax=2
  valence states:
            energy   radius
    2s(2)  -13.639   0.635
    2p(2)   -5.414   0.635
    *s      13.573   0.635
    *p      21.797   0.635
    *d       0.000   0.635

LCAO basis set for C:
  Name: dzp
  Basis set was loaded from file /home/finarfin/Program_Files/gpaw-setups-0.9.11271/C.dzp.basis.gz
  Number of radial functions: 5
  Number of spherical harmonics: 13
    l=0, rc=5.5469 Bohr: 2s-sz confined orbital
    l=1, rc=6.6719 Bohr: 2p-sz confined orbital
    l=0, rc=3.0312 Bohr: 2s-dz split-valence wave
    l=1, rc=3.7500 Bohr: 2p-dz split-valence wave
    l=2, rc=6.6719 Bohr: d-type Gaussian polarization

N-setup:
  name   : Nitrogen
  id     : c467cdfa1b75f62c8f7a0469921b1cfb
  Z      : 7
  valence: 5
  core   : 2
  charge : 0.0
  file   : /home/finarfin/Program_Files/gpaw-setups-0.9.11271/N.LDA.gz
  cutoffs: 0.58(comp), 1.11(filt), 0.96(core), lmax=2
  valence states:
            energy   radius
    2s(2)  -18.420   0.603
    2p(3)   -7.237   0.529
    *s       8.791   0.603
    *p      19.974   0.529
    *d       0.000   0.577

LCAO basis set for N:
  Name: dzp
  Basis set was loaded from file /home/finarfin/Program_Files/gpaw-setups-0.9.11271/N.dzp.basis.gz
  Number of radial functions: 5
  Number of spherical harmonics: 13
    l=0, rc=4.8594 Bohr: 2s-sz confined orbital
    l=1, rc=6.0625 Bohr: 2p-sz confined orbital
    l=0, rc=2.6094 Bohr: 2s-dz split-valence wave
    l=1, rc=3.2656 Bohr: 2p-dz split-valence wave
    l=2, rc=6.0625 Bohr: d-type Gaussian polarization

H-setup:
  name   : Hydrogen
  id     : 4766778ce56282eaa64abeb28b7c1de3
  Z      : 1
  valence: 1
  core   : 0
  charge : 0.0
  file   : /home/finarfin/Program_Files/gpaw-setups-0.9.11271/H.LDA.gz
  cutoffs: 0.48(comp), 0.85(filt), 0.53(core), lmax=2
  valence states:
            energy   radius
    1s(1)   -6.353   0.476
    *s      20.858   0.476
    *p       0.000   0.476

LCAO basis set for H:
  Name: dzp
  Basis set was loaded from file /home/finarfin/Program_Files/gpaw-setups-0.9.11271/H.dzp.basis.gz
  Number of radial functions: 3
  Number of spherical harmonics: 5
    l=0, rc=6.4219 Bohr: 1s-sz confined orbital
    l=0, rc=3.6094 Bohr: 1s-dz split-valence wave
    l=1, rc=6.4219 Bohr: p-type Gaussian polarization

Using the LDA Exchange-Correlation Functional.
Spin-Paired Calculation
Total Charge:      0.000000
Fermi Temperature: 0.000000
Wave functions: LCAO
Eigensolver:       lcao (direct)
XC and Coulomb potentials evaluated on a 152*152*104 grid
Interpolation: tri-quintic (5. degree polynomial)
Poisson solver: Jacobi solver with 4 multi-grid levels
Stencil: 6*3+1=19 point O(h^6) finite-difference Laplacian
Reference Energy:  -26356.589525

Total number of cores used: 3
Domain Decomposition: 1 x 3 x 1
Diagonalizer layout: Serial LAPACK

Symmetries present: 1
1 k-point (Gamma)
1 k-point in the Irreducible Part of the Brillouin Zone
Mixer Type:                        Mixer
Linear Mixing Parameter:           0.25
Mixing with 3 Old Densities
No Damping of Long Wave Oscillations

Convergence Criteria:
Total Energy Change:           0.0005 eV / electron
Integral of Absolute Density Change:    0.0001 electrons
Integral of Absolute Eigenstate Change: 4e-08 eV^2
Number of Atoms: 32
Number of Atomic Orbitals: 352
Number of Bands in Calculation:         104
Bands to Converge:                      Occupied States Only
Number of Valence Electrons:            108
                     log10-error:    Total        Iterations:
           Time      WFS    Density  Energy       Fermi  Poisson
iter:   1  14:27:39                  -243.508160  0      41     
iter:   2  14:27:50         -0.92    -241.479668  0      23     
iter:   3  14:27:58         -1.07    -240.554147  0      26     
iter:   4  14:28:06         -1.38    -240.439297  0      22     
iter:   5  14:28:13         -1.96    -240.418865  0      9      
iter:   6  14:28:20         -2.18    -240.406677  0      13     
iter:   7  14:28:26         -2.50    -240.402472  0      8      
iter:   8  14:28:31         -2.86    -240.401119  0      5      
iter:   9  14:28:36         -3.03    -240.399889  0      5      
iter:  10  14:28:39         -3.44    -240.400124  0      4      
iter:  11  14:28:42         -3.73    -240.400010  0      3      
iter:  12  14:28:46         -3.90    -240.400167  0      4      
iter:  13  14:28:49         -4.33    -240.399900  0      2      
------------------------------------
Converged After 13 Iterations.

Energy Contributions Relative to Reference Atoms:(reference = -26356.589525)
-------------------------
Kinetic:        -66.118673
Potential:       +1.670995
External:        +0.000000
XC:            -179.188570
Entropy (-ST):   -0.000000
Local:           +3.236348
-------------------------
Free Energy:   -240.399900
Zero Kelvin:   -240.399900

Fermi Level: -5.04613
 Band   Eigenvalues  Occupancy
   0    -22.27702     2.00000
   1    -22.06788     2.00000
   2    -21.23349     2.00000
   3    -20.92283     2.00000
   4    -20.91919     2.00000
   5    -20.08169     2.00000
   6    -19.67257     2.00000
   7    -19.21286     2.00000
   8    -18.61911     2.00000
   9    -18.57553     2.00000
  10    -18.30651     2.00000
  11    -17.54980     2.00000
  12    -16.46784     2.00000
  13    -15.86414     2.00000
  14    -15.81296     2.00000
  15    -15.77572     2.00000
  16    -15.36831     2.00000
  17    -14.76435     2.00000
  18    -14.03160     2.00000
  19    -13.74841     2.00000
  20    -13.27774     2.00000
  21    -12.74168     2.00000
  22    -12.73982     2.00000
  23    -11.88660     2.00000
  24    -11.70585     2.00000
  25    -11.54395     2.00000
  26    -11.51371     2.00000
  27    -11.38652     2.00000
  28    -11.16232     2.00000
  29    -10.62156     2.00000
  30    -10.59243     2.00000
  31    -10.34253     2.00000
  32    -10.32311     2.00000
  33    -10.15426     2.00000
  34     -9.79357     2.00000
  35     -9.78844     2.00000
  36     -9.60496     2.00000
  37     -9.59135     2.00000
  38     -9.52183     2.00000
  39     -9.42159     2.00000
  40     -8.67951     2.00000
  41     -8.47228     2.00000
  42     -8.44872     2.00000
  43     -8.09768     2.00000
  44     -7.34980     2.00000
  45     -7.30272     2.00000
  46     -6.95556     2.00000
  47     -6.83035     2.00000
  48     -6.77864     2.00000
  49     -6.77173     2.00000
  50     -6.29391     2.00000
  51     -6.26114     2.00000
  52     -6.09491     2.00000
  53     -5.92845     2.00000
  54     -4.16381     0.00000
  55     -3.68709     0.00000
  56     -3.15357     0.00000
  57     -3.09686     0.00000
  58     -2.72579     0.00000
  59     -2.39411     0.00000
  60     -1.69554     0.00000
  61     -1.02962     0.00000
  62     -0.98167     0.00000
  63     -0.10117     0.00000
  64      0.03021     0.00000
  65      0.55594     0.00000
  66      0.66505     0.00000
  67      0.83577     0.00000
  68      0.85333     0.00000
  69      1.05675     0.00000
  70      1.30389     0.00000
  71      1.33977     0.00000
  72      1.51038     0.00000
  73      1.65613     0.00000
  74      1.74797     0.00000
  75      2.03235     0.00000
  76      2.54136     0.00000
  77      2.56936     0.00000
  78      2.60758     0.00000
  79      2.69619     0.00000
  80      2.90055     0.00000
  81      3.13036     0.00000
  82      3.15288     0.00000
  83      3.16465     0.00000
  84      3.54384     0.00000
  85      4.30668     0.00000
  86      4.41037     0.00000
  87      4.93958     0.00000
  88      4.99415     0.00000
  89      5.31464     0.00000
  90      5.36633     0.00000
  91      5.53032     0.00000
  92      5.69172     0.00000
  93      6.69447     0.00000
  94      6.74095     0.00000
  95      7.23748     0.00000
  96      7.46480     0.00000
  97      7.48475     0.00000
  98      8.11184     0.00000
  99      8.12544     0.00000
 100      8.42245     0.00000
 101      8.58363     0.00000
 102      8.59823     0.00000
 103      8.76901     0.00000


Dipole Moment: [ -2.65161611e-06   4.34938565e-08   3.48836835e-12]
Memory usage: 140.43 MB
==========================================================
Timing:                             incl.     excl.
==========================================================
IO:                                 0.054     0.000   0.0% |
 Write:                             0.053     0.003   0.0% |
  Atomic matrices:                  0.001     0.001   0.0% |
  Band energies:                    0.000     0.000   0.0% |
  Close:                            0.008     0.008   0.0% |
  Meta data:                        0.004     0.004   0.0% |
  Projections:                      0.011     0.011   0.0% |
  Pseudo-density:                   0.018     0.018   0.0% |
  Pseudo-potential:                 0.007     0.007   0.0% |
  Pseudo-wavefunctions:             0.001     0.001   0.0% |
Initialization:                    17.324     1.919   2.2% ||
 Basic WFS set positions:           0.002     0.002   0.0% |
 Basis functions set positions:     0.227     0.227   0.3% |
 Hamiltonian:                      13.070     0.008   0.0% |
  Atomic:                           0.777     0.018   0.0% |
   XC Correction:                   0.759     0.759   0.9% |
  Communicate energies:             0.385     0.385   0.4% |
  Hartree integrate/restrict:       0.035     0.035   0.0% |
  Initialize Hamiltonian:           0.022     0.022   0.0% |
  Poisson:                         11.394    11.394  13.0% |----|
  XC 3D grid:                       0.426     0.426   0.5% |
  vbar:                             0.021     0.021   0.0% |
 TCI: Calculate S, T, P:            0.623     0.623   0.7% |
 TCI: Evaluate splines:             1.484     1.484   1.7% ||
SCF-cycle:                         70.327     0.009   0.0% |
 Density:                           9.151     0.001   0.0% |
  Atomic density matrices:          0.109     0.109   0.1% |
  Mix:                              1.069     1.069   1.2% |
  Multipole moments:                5.299     5.299   6.0% |-|
  Normalize:                        0.009     0.009   0.0% |
  Pseudo density:                   2.664     0.052   0.1% |
   Calculate density matrix:        0.108     0.108   0.1% |
   Construct density:               2.504     2.504   2.9% ||
   Symmetrize density:              0.000     0.000   0.0% |
 Hamiltonian:                      49.768     0.067   0.1% |
  Atomic:                           7.136     0.273   0.3% |
   XC Correction:                   6.863     6.863   7.8% |--|
  Communicate energies:             7.055     7.055   8.0% |--|
  Hartree integrate/restrict:       0.268     0.268   0.3% |
  Poisson:                         31.093    31.093  35.4% |-------------|
  XC 3D grid:                       3.978     3.978   4.5% |-|
  vbar:                             0.172     0.172   0.2% |
 LCAO eigensolver:                 11.398     0.005   0.0% |
  Atomic Hamiltonian:               0.229     0.229   0.3% |
  Calculate projections:            0.238     0.238   0.3% |
  Distribute overlap matrix:        4.708     4.708   5.4% |-|
  Orbital Layouts:                  3.878     3.878   4.4% |-|
  Potential matrix:                 2.339     2.339   2.7% ||
Other:                              0.074     0.074   0.1% |
==========================================================
Total:                                       87.779 100.0%
==========================================================
date: Tue Jun 14 14:28:49 2016
